LAMMPS (31 Mar 2017)
variable        T equal 300.0
variable        p equal   1.0
variable        Tdamp equal  100.0
variable        pdamp equal 1000.0

units           real
neigh_modify    delay 0 every 1 check yes

atom_style      full
bond_style      harmonic
angle_style     charmm
dihedral_style  charmm
improper_style  harmonic

pair_style      lj/charmm/coul/long/opt 10 12
pair_modify     mix arithmetic
kspace_style    pppm 1e-4

read_data       benchmark.data
  orthogonal box = (-218.013 -224.982 -73.4177) to (218.013 224.982 73.4177)
  2 by 7 by 1 MPI processor grid
  reading atoms ...
  2997924 atoms
  reading velocities ...
  2997924 velocities
  scanning bonds ...
  4 = max bonds/atom
  scanning angles ...
  6 = max angles/atom
  scanning dihedrals ...
  36 = max dihedrals/atom
  scanning impropers ...
  2 = max impropers/atom
  reading bonds ...
  2310204 bonds
  reading angles ...
  2497550 angles
  reading dihedrals ...
  2964012 dihedrals
  reading impropers ...
  28260 impropers
  4 = max # of 1-2 neighbors
  12 = max # of 1-3 neighbors
  19 = max # of 1-4 neighbors
  21 = max # of special neighbors

special_bonds   charmm
fix             1 all shake 1e-6 500 0 m 1.0 b 85 a 184
  34924 = # of size 2 clusters
  216000 = # of size 3 clusters
  35668 = # of size 4 clusters
  680410 = # of frozen angles
#fix             2 all npt temp $T $T ${Tdamp} iso $p $p ${pdamp}
#fix             2 all npt temp $T $T ${Tdamp} #                x $p $p ${pdamp} y $p $p ${pdamp} z $p $p ${pdamp} #                couple xy
fix             2 all npt temp $T $T ${Tdamp} z $p $p ${pdamp}
fix             2 all npt temp 300 $T ${Tdamp} z $p $p ${pdamp}
fix             2 all npt temp 300 300 ${Tdamp} z $p $p ${pdamp}
fix             2 all npt temp 300 300 100 z $p $p ${pdamp}
fix             2 all npt temp 300 300 100 z 1 $p ${pdamp}
fix             2 all npt temp 300 300 100 z 1 1 ${pdamp}
fix             2 all npt temp 300 300 100 z 1 1 1000

thermo          1000
thermo_style    multi
thermo_modify   flush yes
timestep        2.0

restart         1000 lmp-benchmark.rst
dump            1 all dcd 5000 lmp-benchmark.dcd
dump_modify     1 unwrap yes

run             10000
PPPM initialization ...
WARNING: Using 12-bit tables for long-range coulomb (../kspace.cpp:321)
  G vector (1/distance) = 0.209784
  grid = 150 160 64
  stencil order = 5
  estimated absolute RMS force accuracy = 0.0401289
  estimated relative force accuracy = 0.000120847
  using double precision FFTs
  3d grid and FFT values/proc = 160080 120000
Neighbor list info ...
  update every 1 steps, delay 0 steps, check yes
  max neighbors/atom: 2000, page size: 100000
  master list distance cutoff = 14
  ghost atom cutoff = 14
  binsize = 7, bins = 63 65 21
  1 neighbor lists, perpetual/occasional/extra = 1 0 0
  (1) pair lj/charmm/coul/long/opt, perpetual
      attributes: half, newton on
      pair build: half/bin/newton
      stencil: half/bin/3d/newton
      bin: standard
Per MPI rank memory allocation (min/avg/max) = 1137 | 1160 | 1167 Mbytes
---------------- Step        0 ----- CPU =      0.0000 (sec) ----------------
TotEng   =  -5198527.1897 KinEng   =   1900046.9846 Temp     =       299.7955 
PotEng   =  -7098574.1743 E_bond   =    106470.9532 E_angle  =    555576.1131 
E_dihed  =    249732.3951 E_impro  =      6486.5045 E_vdwl   =    322655.5854 
E_coul   =  22202828.1578 E_long   = -30542323.8833 Press    =        40.6963 
Volume   =  28808466.4245 
---------------- Step     1000 ----- CPU =   3217.4368 (sec) ----------------
TotEng   =  -5199537.8225 KinEng   =   1901468.5722 Temp     =       300.0198 
PotEng   =  -7101006.3946 E_bond   =    106716.5794 E_angle  =    556085.5665 
E_dihed  =    249933.7076 E_impro  =      6451.3213 E_vdwl   =    320033.2785 
E_coul   =  22202168.0573 E_long   = -30542394.9052 Press    =       -13.9288 
Volume   =  28786524.8225 
---------------- Step     2000 ----- CPU =   6432.7099 (sec) ----------------
TotEng   =  -5198641.8435 KinEng   =   1902283.7236 Temp     =       300.1485 
PotEng   =  -7100925.5671 E_bond   =    106671.5554 E_angle  =    555743.1645 
E_dihed  =    249029.1399 E_impro  =      6460.4529 E_vdwl   =    321864.4790 
E_coul   =  22201678.6546 E_long   = -30542373.0134 Press    =        39.4380 
Volume   =  28776761.4367 
---------------- Step     3000 ----- CPU =   9644.0399 (sec) ----------------
TotEng   =  -5197415.5403 KinEng   =   1902202.4501 Temp     =       300.1356 
PotEng   =  -7099617.9904 E_bond   =    106513.2573 E_angle  =    556830.9674 
E_dihed  =    249295.4098 E_impro  =      6543.6596 E_vdwl   =    320319.7923 
E_coul   =  22203339.3176 E_long   = -30542460.3944 Press    =        11.7778 
Volume   =  28784600.0402 
---------------- Step     4000 ----- CPU =  12844.2612 (sec) ----------------
TotEng   =  -5200501.4573 KinEng   =   1900576.6210 Temp     =       299.8791 
PotEng   =  -7101078.0783 E_bond   =    106311.5430 E_angle  =    556212.0970 
E_dihed  =    249344.1411 E_impro  =      6441.2236 E_vdwl   =    321022.0678 
E_coul   =  22201963.6146 E_long   = -30542372.7655 Press    =        16.4987 
Volume   =  28789271.7033 
---------------- Step     5000 ----- CPU =  16051.1263 (sec) ----------------
TotEng   =  -5199859.0044 KinEng   =   1901810.8636 Temp     =       300.0739 
PotEng   =  -7101669.8679 E_bond   =    106275.7135 E_angle  =    556583.2691 
E_dihed  =    249327.7216 E_impro  =      6469.3134 E_vdwl   =    323209.2985 
E_coul   =  22198913.1109 E_long   = -30542448.2948 Press    =        67.0851 
Volume   =  28791441.0008 
---------------- Step     6000 ----- CPU =  19262.8131 (sec) ----------------
TotEng   =  -5204293.7240 KinEng   =   1902488.9143 Temp     =       300.1808 
PotEng   =  -7106782.6383 E_bond   =    106198.7390 E_angle  =    555952.4713 
E_dihed  =    249648.6193 E_impro  =      6476.7986 E_vdwl   =    324448.7232 
E_coul   =  22192849.9708 E_long   = -30542357.9605 Press    =        39.3100 
Volume   =  28771275.6807 
---------------- Step     7000 ----- CPU =  22474.3829 (sec) ----------------
TotEng   =  -5199408.0702 KinEng   =   1901762.6045 Temp     =       300.0662 
PotEng   =  -7101170.6747 E_bond   =    106478.5502 E_angle  =    556272.4335 
E_dihed  =    249359.4365 E_impro  =      6427.7616 E_vdwl   =    319811.7485 
E_coul   =  22202913.2166 E_long   = -30542433.8215 Press    =         5.5811 
Volume   =  28791361.7298 
---------------- Step     8000 ----- CPU =  25680.7589 (sec) ----------------
TotEng   =  -5198416.8289 KinEng   =   1901609.3262 Temp     =       300.0421 
PotEng   =  -7100026.1551 E_bond   =    106534.8059 E_angle  =    557235.2595 
E_dihed  =    249519.6387 E_impro  =      6472.0019 E_vdwl   =    318478.5992 
E_coul   =  22204180.8997 E_long   = -30542447.3599 Press    =        -9.5998 
Volume   =  28796873.4076 
---------------- Step     9000 ----- CPU =  28884.1750 (sec) ----------------
TotEng   =  -5201278.3151 KinEng   =   1900545.1856 Temp     =       299.8742 
PotEng   =  -7101823.5007 E_bond   =    106009.4177 E_angle  =    556044.6492 
E_dihed  =    249518.5030 E_impro  =      6531.1556 E_vdwl   =    321136.0836 
E_coul   =  22201343.2128 E_long   = -30542406.5226 Press    =        41.2295 
Volume   =  28786830.7390 
---------------- Step    10000 ----- CPU =  32103.4807 (sec) ----------------
TotEng   =  -5202215.0298 KinEng   =   1901252.8864 Temp     =       299.9858 
PotEng   =  -7103467.9163 E_bond   =    106342.0688 E_angle  =    556439.9577 
E_dihed  =    249169.2853 E_impro  =      6523.4032 E_vdwl   =    320775.3448 
E_coul   =  22199596.7398 E_long   = -30542314.7158 Press    =        47.0470 
Volume   =  28780743.5816 
Loop time of 32103.5 on 14 procs for 10000 steps with 2997924 atoms

Performance: 0.054 ns/day, 445.882 hours/ns, 0.311 timesteps/s
99.7% CPU use with 14 MPI tasks x no OpenMP threads

MPI task timing breakdown:
Section |  min time  |  avg time  |  max time  |%varavg| %total
---------------------------------------------------------------
Pair    | 21594      | 21868      | 22289      | 108.1 | 68.12
Bond    | 379.57     | 440.14     | 524.39     | 230.6 |  1.37
Kspace  | 1799.5     | 2242.8     | 2554.7     | 348.8 |  6.99
Neigh   | 5797.4     | 5800.6     | 5802.1     |   1.7 | 18.07
Comm    | 221.57     | 223.01     | 224        |   5.6 |  0.69
Output  | 24.984     | 24.985     | 24.987     |   0.0 |  0.08
Modify  | 1356.9     | 1404.3     | 1436.8     |  86.6 |  4.37
Other   |            | 99.25      |            |       |  0.31

Nlocal:    214137 ave 214966 max 213292 min
Histogram: 2 0 1 2 4 0 1 0 2 2
Nghost:    197043 ave 197854 max 196247 min
Histogram: 1 3 1 0 1 2 2 1 2 1
Neighs:    1.28238e+08 ave 1.29277e+08 max 1.27147e+08 min
Histogram: 1 1 0 4 3 0 1 1 1 2

Total # of neighbors = 1795326538
Ave neighs/atom = 598.857
Ave special neighs/atom = 4.89894
Neighbor list builds = 1366
Dangerous builds = 0
Total wall time: 8:55:27
