LAMMPS (31 Mar 2017)
variable        T equal 300.0
variable        p equal   1.0
variable        Tdamp equal  100.0
variable        pdamp equal 1000.0
variable	new string "20k_infiniband_gpu"

units           real
neigh_modify    delay 0 every 1 check yes

atom_style      full
bond_style      harmonic
angle_style     charmm
dihedral_style  charmm
improper_style  harmonic

pair_style      lj/charmm/coul/long 10 12
pair_modify     mix arithmetic
kspace_style    pppm 1e-4

read_data       benchmark.data
  orthogonal box = (-29.7267 -27.2901 -29.7267) to (29.7267 27.2901 29.7267)
  2 by 2 by 7 MPI processor grid
  reading atoms ...
  19605 atoms
  reading velocities ...
  19605 velocities
  scanning bonds ...
  4 = max bonds/atom
  scanning angles ...
  6 = max angles/atom
  scanning dihedrals ...
  18 = max dihedrals/atom
  scanning impropers ...
  2 = max impropers/atom
  reading bonds ...
  13294 bonds
  reading angles ...
  7504 angles
  reading dihedrals ...
  1866 dihedrals
  reading impropers ...
  102 impropers
  4 = max # of 1-2 neighbors
  9 = max # of 1-3 neighbors
  19 = max # of 1-4 neighbors
  21 = max # of special neighbors

special_bonds   charmm
fix             1 all shake 1.0e-6 500 0 m 1.0 b 47 a 106
  121 = # of size 2 clusters
  55 = # of size 3 clusters
  28 = # of size 4 clusters
  6321 = # of frozen angles
fix             2 all npt temp $T $T ${Tdamp} iso $p $p ${pdamp}
fix             2 all npt temp 300 $T ${Tdamp} iso $p $p ${pdamp}
fix             2 all npt temp 300 300 ${Tdamp} iso $p $p ${pdamp}
fix             2 all npt temp 300 300 100 iso $p $p ${pdamp}
fix             2 all npt temp 300 300 100 iso 1 $p ${pdamp}
fix             2 all npt temp 300 300 100 iso 1 1 ${pdamp}
fix             2 all npt temp 300 300 100 iso 1 1 1000

thermo          10000
thermo_style    multi
thermo_modify   flush yes
timestep        2.0

restart         10000 benchmark.rst
dump            1 all dcd 25000 benchmark.dcd
dump_modify     1 unwrap yes

run             50000
PPPM initialization ...
WARNING: Using 12-bit tables for long-range coulomb (../kspace.cpp:321)
  G vector (1/distance) = 0.216778
  grid = 24 24 24
  stencil order = 5
  estimated absolute RMS force accuracy = 0.0337844
  estimated relative force accuracy = 0.000101741
  using double precision FFTs
  3d grid and FFT values/proc = 2890 576
Neighbor list info ...
  update every 1 steps, delay 0 steps, check yes
  max neighbors/atom: 2000, page size: 100000
  master list distance cutoff = 14
  ghost atom cutoff = 14
  binsize = 7, bins = 9 8 9
  1 neighbor lists, perpetual/occasional/extra = 1 0 0
  (1) pair lj/charmm/coul/long, perpetual
      attributes: half, newton on
      pair build: half/bin/newton
      stencil: half/bin/3d/newton
      bin: standard
Per MPI rank memory allocation (min/avg/max) = 18.68 | 19.1 | 19.49 Mbytes
---------------- Step        0 ----- CPU =      0.0000 (sec) ----------------
TotEng   =    -50353.2942 KinEng   =     11904.6045 Temp     =       303.0618 
PotEng   =    -62257.8987 E_bond   =       122.4502 E_angle  =       370.9654 
E_dihed  =       255.9852 E_impro  =        24.6181 E_vdwl   =      6435.1015 
E_coul   =    200806.0396 E_long   =   -270273.0588 Press    =       245.0164 
Volume   =    192924.4262 
---------------- Step    10000 ----- CPU =    176.3113 (sec) ----------------
TotEng   =    -50725.8476 KinEng   =     11738.1516 Temp     =       298.8243 
PotEng   =    -62463.9992 E_bond   =       120.3324 E_angle  =       382.1366 
E_dihed  =       243.7047 E_impro  =        21.7577 E_vdwl   =      6258.8246 
E_coul   =    200778.0327 E_long   =   -270268.7879 Press    =      -233.0771 
Volume   =    193857.9908 
---------------- Step    20000 ----- CPU =    350.8461 (sec) ----------------
TotEng   =    -50609.5592 KinEng   =     11804.8322 Temp     =       300.5218 
PotEng   =    -62414.3914 E_bond   =       145.7336 E_angle  =       392.8153 
E_dihed  =       253.5457 E_impro  =        25.6538 E_vdwl   =      6230.1753 
E_coul   =    200793.6921 E_long   =   -270256.0073 Press    =      -199.3587 
Volume   =    193301.6539 
---------------- Step    30000 ----- CPU =    525.1259 (sec) ----------------
TotEng   =    -50393.1707 KinEng   =     11866.3462 Temp     =       302.0878 
PotEng   =    -62259.5170 E_bond   =       127.2086 E_angle  =       372.3315 
E_dihed  =       250.6790 E_impro  =        22.4206 E_vdwl   =      6419.3414 
E_coul   =    200813.3777 E_long   =   -270264.8757 Press    =       202.6600 
Volume   =    193282.9321 
---------------- Step    40000 ----- CPU =    700.4271 (sec) ----------------
TotEng   =    -50771.1780 KinEng   =     11713.2156 Temp     =       298.1895 
PotEng   =    -62484.3936 E_bond   =       130.0829 E_angle  =       397.9726 
E_dihed  =       233.0973 E_impro  =        25.1043 E_vdwl   =      6336.9737 
E_coul   =    200658.8829 E_long   =   -270266.5074 Press    =      -110.7870 
Volume   =    192787.5168 
---------------- Step    50000 ----- CPU =    873.3696 (sec) ----------------
TotEng   =    -50750.5434 KinEng   =     11757.8466 Temp     =       299.3257 
PotEng   =    -62508.3900 E_bond   =       141.9807 E_angle  =       394.4831 
E_dihed  =       246.8952 E_impro  =        23.4632 E_vdwl   =      6348.2661 
E_coul   =    200602.8676 E_long   =   -270266.3460 Press    =        11.1168 
Volume   =    193608.2505 
Loop time of 873.37 on 28 procs for 50000 steps with 19605 atoms

Performance: 9.893 ns/day, 2.426 hours/ns, 57.250 timesteps/s
99.7% CPU use with 28 MPI tasks x no OpenMP threads

MPI task timing breakdown:
Section |  min time  |  avg time  |  max time  |%varavg| %total
---------------------------------------------------------------
Pair    | 457.15     | 503.44     | 545.28     |  91.4 | 57.64
Bond    | 0.041728   | 0.71185    | 5.8701     | 180.4 |  0.08
Kspace  | 78.457     | 121.66     | 172.31     | 202.4 | 13.93
Neigh   | 80.748     | 81.22      | 82.581     |   5.6 |  9.30
Comm    | 84.453     | 92.898     | 96.81      |  36.5 | 10.64
Output  | 0.23354    | 0.23401    | 0.23715    |   0.1 |  0.03
Modify  | 65.361     | 68.148     | 71.416     |  17.4 |  7.80
Other   |            | 5.057      |            |       |  0.58

Nlocal:    700.179 ave 735 max 647 min
Histogram: 1 0 2 2 3 4 4 7 4 1
Nghost:    11144.7 ave 11203 max 11083 min
Histogram: 2 3 3 3 2 2 5 4 1 3
Neighs:    407258 ave 441915 max 370418 min
Histogram: 1 2 0 3 8 5 4 2 2 1

Total # of neighbors = 11403213
Ave neighs/atom = 581.648
Ave special neighs/atom = 2.29645
Neighbor list builds = 5404
Dangerous builds = 0
Total wall time: 0:14:33
