LAMMPS (31 Mar 2017)
variable        T equal 300.0
variable        p equal   1.0
variable        Tdamp equal  100.0
variable        pdamp equal 1000.0

units           real
neigh_modify    delay 0 every 1 check yes

atom_style      full
bond_style      harmonic
angle_style     charmm
dihedral_style  charmm
improper_style  harmonic

pair_style      lj/charmm/coul/long/opt 10 12
pair_modify     mix arithmetic
kspace_style    pppm 1e-4

read_data       benchmark.data
  orthogonal box = (-218.013 -224.982 -73.4177) to (218.013 224.982 73.4177)
  2 by 2 by 1 MPI processor grid
  reading atoms ...
  2997924 atoms
  reading velocities ...
  2997924 velocities
  scanning bonds ...
  4 = max bonds/atom
  scanning angles ...
  6 = max angles/atom
  scanning dihedrals ...
  36 = max dihedrals/atom
  scanning impropers ...
  2 = max impropers/atom
  reading bonds ...
  2310204 bonds
  reading angles ...
  2497550 angles
  reading dihedrals ...
  2964012 dihedrals
  reading impropers ...
  28260 impropers
  4 = max # of 1-2 neighbors
  12 = max # of 1-3 neighbors
  19 = max # of 1-4 neighbors
  21 = max # of special neighbors

special_bonds   charmm
fix             1 all shake 1e-6 500 0 m 1.0 b 85 a 184
  34924 = # of size 2 clusters
  216000 = # of size 3 clusters
  35668 = # of size 4 clusters
  680410 = # of frozen angles
#fix             2 all npt temp $T $T ${Tdamp} iso $p $p ${pdamp}
#fix             2 all npt temp $T $T ${Tdamp} #                x $p $p ${pdamp} y $p $p ${pdamp} z $p $p ${pdamp} #                couple xy
fix             2 all npt temp $T $T ${Tdamp} z $p $p ${pdamp}
fix             2 all npt temp 300 $T ${Tdamp} z $p $p ${pdamp}
fix             2 all npt temp 300 300 ${Tdamp} z $p $p ${pdamp}
fix             2 all npt temp 300 300 100 z $p $p ${pdamp}
fix             2 all npt temp 300 300 100 z 1 $p ${pdamp}
fix             2 all npt temp 300 300 100 z 1 1 ${pdamp}
fix             2 all npt temp 300 300 100 z 1 1 1000

thermo          1000
thermo_style    multi
thermo_modify   flush yes
timestep        2.0

restart         1000 lmp-benchmark.rst
dump            1 all dcd 5000 lmp-benchmark.dcd
dump_modify     1 unwrap yes

run             10000
PPPM initialization ...
WARNING: Using 12-bit tables for long-range coulomb (../kspace.cpp:321)
  G vector (1/distance) = 0.209784
  grid = 150 160 64
  stencil order = 5
  estimated absolute RMS force accuracy = 0.0401289
  estimated relative force accuracy = 0.000120847
  using double precision FFTs
  3d grid and FFT values/proc = 469200 384000
Neighbor list info ...
  update every 1 steps, delay 0 steps, check yes
  max neighbors/atom: 2000, page size: 100000
  master list distance cutoff = 14
  ghost atom cutoff = 14
  binsize = 7, bins = 63 65 21
  1 neighbor lists, perpetual/occasional/extra = 1 0 0
  (1) pair lj/charmm/coul/long/opt, perpetual
      attributes: half, newton on
      pair build: half/bin/newton
      stencil: half/bin/3d/newton
      bin: standard
Per MPI rank memory allocation (min/avg/max) = 3476 | 3481 | 3488 Mbytes
---------------- Step        0 ----- CPU =      0.0000 (sec) ----------------
TotEng   =  -5198527.1898 KinEng   =   1900046.9846 Temp     =       299.7955 
PotEng   =  -7098574.1743 E_bond   =    106470.9532 E_angle  =    555576.1131 
E_dihed  =    249732.3951 E_impro  =      6486.5045 E_vdwl   =    322655.5854 
E_coul   =  22202828.1577 E_long   = -30542323.8834 Press    =        40.6963 
Volume   =  28808466.4245 
---------------- Step     1000 ----- CPU =  10817.5245 (sec) ----------------
TotEng   =  -5202052.6113 KinEng   =   1900416.3666 Temp     =       299.8538 
PotEng   =  -7102468.9778 E_bond   =    106412.0336 E_angle  =    555150.0189 
E_dihed  =    249805.8239 E_impro  =      6410.3071 E_vdwl   =    320928.1107 
E_coul   =  22201228.8006 E_long   = -30542404.0727 Press    =        20.0868 
Volume   =  28779321.1252 
---------------- Step     2000 ----- CPU =  21398.3468 (sec) ----------------
TotEng   =  -5200309.3206 KinEng   =   1900910.9104 Temp     =       299.9319 
PotEng   =  -7101220.2309 E_bond   =    105606.2225 E_angle  =    556375.9361 
E_dihed  =    249401.3004 E_impro  =      6399.8205 E_vdwl   =    320010.9009 
E_coul   =  22203306.4630 E_long   = -30542320.8745 Press    =        44.8661 
Volume   =  28775166.9620 
---------------- Step     3000 ----- CPU =  31931.1357 (sec) ----------------
TotEng   =  -5198496.9040 KinEng   =   1900853.1905 Temp     =       299.9228 
PotEng   =  -7099350.0945 E_bond   =    106315.2191 E_angle  =    555912.0105 
E_dihed  =    249302.0527 E_impro  =      6462.6905 E_vdwl   =    322017.5506 
E_coul   =  22202934.5501 E_long   = -30542294.1679 Press    =        38.2367 
Volume   =  28779825.9250 
---------------- Step     4000 ----- CPU =  42479.0995 (sec) ----------------
TotEng   =  -5200981.4021 KinEng   =   1900440.9043 Temp     =       299.8577 
PotEng   =  -7101422.3064 E_bond   =    106154.2052 E_angle  =    556350.0361 
E_dihed  =    249496.6622 E_impro  =      6409.8710 E_vdwl   =    319756.9117 
E_coul   =  22202782.6890 E_long   = -30542372.6816 Press    =        -2.0274 
Volume   =  28791926.6224 
---------------- Step     5000 ----- CPU =  52994.4036 (sec) ----------------
TotEng   =  -5201105.0474 KinEng   =   1901018.1039 Temp     =       299.9488 
PotEng   =  -7102123.1513 E_bond   =    106013.0436 E_angle  =    556709.1766 
E_dihed  =    249597.9960 E_impro  =      6499.7569 E_vdwl   =    318817.7443 
E_coul   =  22202574.5295 E_long   = -30542335.3982 Press    =        -5.9806 
Volume   =  28778811.5663 
---------------- Step     6000 ----- CPU =  63429.0144 (sec) ----------------
TotEng   =  -5200387.9152 KinEng   =   1900580.0920 Temp     =       299.8797 
PotEng   =  -7100968.0072 E_bond   =    106086.8201 E_angle  =    556910.8361 
E_dihed  =    249871.1030 E_impro  =      6411.3698 E_vdwl   =    319312.5273 
E_coul   =  22202804.0576 E_long   = -30542364.7210 Press    =        27.4083 
Volume   =  28783547.1568 
---------------- Step     7000 ----- CPU =  73819.2293 (sec) ----------------
TotEng   =  -5198937.9336 KinEng   =   1901237.7745 Temp     =       299.9834 
PotEng   =  -7100175.7081 E_bond   =    106260.9664 E_angle  =    556339.8404 
E_dihed  =    249182.3100 E_impro  =      6433.0898 E_vdwl   =    320422.0208 
E_coul   =  22203635.9172 E_long   = -30542449.8528 Press    =        14.4091 
Volume   =  28802264.4927 
---------------- Step     8000 ----- CPU =  84177.1938 (sec) ----------------
TotEng   =  -5201639.4520 KinEng   =   1899821.6677 Temp     =       299.7600 
PotEng   =  -7101461.1197 E_bond   =    106374.5009 E_angle  =    556359.1097 
E_dihed  =    249608.0212 E_impro  =      6484.8451 E_vdwl   =    320529.7877 
E_coul   =  22201612.5856 E_long   = -30542429.9698 Press    =         6.3688 
Volume   =  28790292.2964 
---------------- Step     9000 ----- CPU =  94579.5002 (sec) ----------------
TotEng   =  -5201425.8238 KinEng   =   1901131.8168 Temp     =       299.9667 
PotEng   =  -7102557.6406 E_bond   =    106052.3756 E_angle  =    555941.5468 
E_dihed  =    249422.0000 E_impro  =      6500.6604 E_vdwl   =    318780.5539 
E_coul   =  22203076.0858 E_long   = -30542330.8631 Press    =        -6.1449 
Volume   =  28784727.4329 
---------------- Step    10000 ----- CPU = 105018.7800 (sec) ----------------
TotEng   =  -5198182.7346 KinEng   =   1902666.6896 Temp     =       300.2089 
PotEng   =  -7100849.4242 E_bond   =    106464.0473 E_angle  =    556874.8940 
E_dihed  =    249620.4092 E_impro  =      6475.3727 E_vdwl   =    320498.6095 
E_coul   =  22201500.4414 E_long   = -30542283.1983 Press    =        -5.4281 
Volume   =  28781788.7080 
Loop time of 105019 on 4 procs for 10000 steps with 2997924 atoms

Performance: 0.016 ns/day, 1458.594 hours/ns, 0.095 timesteps/s
99.8% CPU use with 4 MPI tasks x no OpenMP threads

MPI task timing breakdown:
Section |  min time  |  avg time  |  max time  |%varavg| %total
---------------------------------------------------------------
Pair    | 73838      | 74428      | 74977      | 191.4 | 70.87
Bond    | 1361.2     | 1507.9     | 1644.8     | 339.2 |  1.44
Kspace  | 5721.5     | 6395.6     | 7101.2     | 815.3 |  6.09
Neigh   | 18708      | 18710      | 18713      |   1.5 | 17.82
Comm    | 309.73     | 312.24     | 313.53     |   8.5 |  0.30
Output  | 41.163     | 41.163     | 41.164     |   0.0 |  0.04
Modify  | 3493.3     | 3508.3     | 3520.3     |  16.7 |  3.34
Other   |            | 115.6      |            |       |  0.11

Nlocal:    749481 ave 751033 max 748159 min
Histogram: 2 0 0 0 0 0 0 1 0 1
Nghost:    377292 ave 377563 max 376971 min
Histogram: 1 0 0 0 1 0 1 0 0 1
Neighs:    4.48813e+08 ave 4.50707e+08 max 4.47279e+08 min
Histogram: 2 0 0 0 0 0 0 1 0 1

Total # of neighbors = 1795251820
Ave neighs/atom = 598.832
Ave special neighs/atom = 4.89894
Neighbor list builds = 1366
Dangerous builds = 0
Total wall time: 29:11:04
