LAMMPS (31 Mar 2017)
variable        T equal 300.0
variable        p equal   1.0
variable        Tdamp equal  100.0
variable        pdamp equal 1000.0
variable	new string "20k_infiniband_gpu"

units           real
neigh_modify    delay 0 every 1 check yes

atom_style      full
bond_style      harmonic
angle_style     charmm
dihedral_style  charmm
improper_style  harmonic

pair_style      lj/charmm/coul/long 10 12
pair_modify     mix arithmetic
kspace_style    pppm 1e-4

read_data       benchmark.data
  orthogonal box = (-29.7267 -27.2901 -29.7267) to (29.7267 27.2901 29.7267)
  1 by 1 by 1 MPI processor grid
  reading atoms ...
  19605 atoms
  reading velocities ...
  19605 velocities
  scanning bonds ...
  4 = max bonds/atom
  scanning angles ...
  6 = max angles/atom
  scanning dihedrals ...
  18 = max dihedrals/atom
  scanning impropers ...
  2 = max impropers/atom
  reading bonds ...
  13294 bonds
  reading angles ...
  7504 angles
  reading dihedrals ...
  1866 dihedrals
  reading impropers ...
  102 impropers
  4 = max # of 1-2 neighbors
  9 = max # of 1-3 neighbors
  19 = max # of 1-4 neighbors
  21 = max # of special neighbors

special_bonds   charmm
fix             1 all shake 1.0e-6 500 0 m 1.0 b 47 a 106
  121 = # of size 2 clusters
  55 = # of size 3 clusters
  28 = # of size 4 clusters
  6321 = # of frozen angles
fix             2 all npt temp $T $T ${Tdamp} iso $p $p ${pdamp}
fix             2 all npt temp 300 $T ${Tdamp} iso $p $p ${pdamp}
fix             2 all npt temp 300 300 ${Tdamp} iso $p $p ${pdamp}
fix             2 all npt temp 300 300 100 iso $p $p ${pdamp}
fix             2 all npt temp 300 300 100 iso 1 $p ${pdamp}
fix             2 all npt temp 300 300 100 iso 1 1 ${pdamp}
fix             2 all npt temp 300 300 100 iso 1 1 1000

thermo          10000
thermo_style    multi
thermo_modify   flush yes
timestep        2.0

restart         10000 benchmark.rst
dump            1 all dcd 25000 benchmark.dcd
dump_modify     1 unwrap yes

run             50000
PPPM initialization ...
WARNING: Using 12-bit tables for long-range coulomb (../kspace.cpp:321)
  G vector (1/distance) = 0.216778
  grid = 24 24 24
  stencil order = 5
  estimated absolute RMS force accuracy = 0.0337844
  estimated relative force accuracy = 0.000101741
  using double precision FFTs
  3d grid and FFT values/proc = 24389 13824
Neighbor list info ...
  update every 1 steps, delay 0 steps, check yes
  max neighbors/atom: 2000, page size: 100000
  master list distance cutoff = 14
  ghost atom cutoff = 14
  binsize = 7, bins = 9 8 9
  1 neighbor lists, perpetual/occasional/extra = 1 0 0
  (1) pair lj/charmm/coul/long, perpetual
      attributes: half, newton on
      pair build: half/bin/newton
      stencil: half/bin/3d/newton
      bin: standard
Per MPI rank memory allocation (min/avg/max) = 115 | 115 | 115 Mbytes
---------------- Step        0 ----- CPU =      0.0000 (sec) ----------------
TotEng   =    -50353.2942 KinEng   =     11904.6045 Temp     =       303.0618 
PotEng   =    -62257.8987 E_bond   =       122.4502 E_angle  =       370.9654 
E_dihed  =       255.9852 E_impro  =        24.6181 E_vdwl   =      6435.1015 
E_coul   =    200806.0396 E_long   =   -270273.0588 Press    =       245.0164 
Volume   =    192924.4262 
---------------- Step    10000 ----- CPU =   3015.9223 (sec) ----------------
TotEng   =    -50542.0384 KinEng   =     11854.5582 Temp     =       301.7877 
PotEng   =    -62396.5966 E_bond   =       134.3843 E_angle  =       372.4273 
E_dihed  =       247.2052 E_impro  =        21.3932 E_vdwl   =      6413.2216 
E_coul   =    200685.8138 E_long   =   -270271.0419 Press    =       131.1930 
Volume   =    193540.2960 
---------------- Step    20000 ----- CPU =   5973.8751 (sec) ----------------
TotEng   =    -50500.7254 KinEng   =     11819.1759 Temp     =       300.8870 
PotEng   =    -62319.9013 E_bond   =       137.5578 E_angle  =       369.9737 
E_dihed  =       236.0676 E_impro  =        22.7674 E_vdwl   =      6372.7853 
E_coul   =    200806.7863 E_long   =   -270265.8395 Press    =        51.9059 
Volume   =    193141.6508 
---------------- Step    30000 ----- CPU =   8993.0084 (sec) ----------------
TotEng   =    -50813.7067 KinEng   =     11613.7128 Temp     =       295.6564 
PotEng   =    -62427.4195 E_bond   =       131.0637 E_angle  =       376.4644 
E_dihed  =       245.4400 E_impro  =        22.7572 E_vdwl   =      6399.2538 
E_coul   =    200662.4167 E_long   =   -270264.8154 Press    =       124.4126 
Volume   =    192589.4177 
---------------- Step    40000 ----- CPU =  12048.2293 (sec) ----------------
TotEng   =    -50677.4163 KinEng   =     11747.1439 Temp     =       299.0532 
PotEng   =    -62424.5603 E_bond   =       145.4521 E_angle  =       387.8533 
E_dihed  =       242.1438 E_impro  =        28.1766 E_vdwl   =      6415.2968 
E_coul   =    200626.4111 E_long   =   -270269.8941 Press    =       -57.7032 
Volume   =    193112.8385 
---------------- Step    50000 ----- CPU =  15102.2044 (sec) ----------------
TotEng   =    -50461.5675 KinEng   =     11772.5749 Temp     =       299.7006 
PotEng   =    -62234.1424 E_bond   =       128.6010 E_angle  =       375.8455 
E_dihed  =       241.7012 E_impro  =        26.0284 E_vdwl   =      6461.6179 
E_coul   =    200804.5231 E_long   =   -270272.4595 Press    =       126.4995 
Volume   =    193520.7540 
Loop time of 15102.2 on 1 procs for 50000 steps with 19605 atoms

Performance: 0.572 ns/day, 41.951 hours/ns, 3.311 timesteps/s
100.0% CPU use with 1 MPI tasks x no OpenMP threads

MPI task timing breakdown:
Section |  min time  |  avg time  |  max time  |%varavg| %total
---------------------------------------------------------------
Pair    | 12241      | 12241      | 12241      |   0.0 | 81.05
Bond    | 16.399     | 16.399     | 16.399     |   0.0 |  0.11
Kspace  | 625.64     | 625.64     | 625.64     |   0.0 |  4.14
Neigh   | 1882.2     | 1882.2     | 1882.2     |   0.0 | 12.46
Comm    | 22.956     | 22.956     | 22.956     |   0.0 |  0.15
Output  | 0.079253   | 0.079253   | 0.079253   |   0.0 |  0.00
Modify  | 303.48     | 303.48     | 303.48     |   0.0 |  2.01
Other   |            | 10.62      |            |       |  0.07

Nlocal:    19605 ave 19605 max 19605 min
Histogram: 1 0 0 0 0 0 0 0 0 0
Nghost:    44627 ave 44627 max 44627 min
Histogram: 1 0 0 0 0 0 0 0 0 0
Neighs:    1.14057e+07 ave 1.14057e+07 max 1.14057e+07 min
Histogram: 1 0 0 0 0 0 0 0 0 0

Total # of neighbors = 11405693
Ave neighs/atom = 581.775
Ave special neighs/atom = 2.29645
Neighbor list builds = 5403
Dangerous builds = 0
Total wall time: 4:11:43
