LAMMPS (31 Mar 2017)
variable        T equal 300.0
variable        p equal   1.0
variable        Tdamp equal  100.0
variable        pdamp equal 1000.0

units           real
neigh_modify    delay 0 every 1 check yes

atom_style      full
bond_style      harmonic
angle_style     charmm
dihedral_style  charmm
improper_style  harmonic

pair_style      lj/charmm/coul/long/opt 10 12
pair_modify     mix arithmetic
kspace_style    pppm 1e-4

read_data       benchmark.data
  orthogonal box = (-218.013 -224.982 -73.4177) to (218.013 224.982 73.4177)
  8 by 14 by 4 MPI processor grid
  reading atoms ...
  2997924 atoms
  reading velocities ...
  2997924 velocities
  scanning bonds ...
  4 = max bonds/atom
  scanning angles ...
  6 = max angles/atom
  scanning dihedrals ...
  36 = max dihedrals/atom
  scanning impropers ...
  2 = max impropers/atom
  reading bonds ...
  2310204 bonds
  reading angles ...
  2497550 angles
  reading dihedrals ...
  2964012 dihedrals
  reading impropers ...
  28260 impropers
  4 = max # of 1-2 neighbors
  12 = max # of 1-3 neighbors
  19 = max # of 1-4 neighbors
  21 = max # of special neighbors

special_bonds   charmm
fix             1 all shake 1e-6 500 0 m 1.0 b 85 a 184
  34924 = # of size 2 clusters
  216000 = # of size 3 clusters
  35668 = # of size 4 clusters
  680410 = # of frozen angles
#fix             2 all npt temp $T $T ${Tdamp} iso $p $p ${pdamp}
#fix             2 all npt temp $T $T ${Tdamp} #                x $p $p ${pdamp} y $p $p ${pdamp} z $p $p ${pdamp} #                couple xy
fix             2 all npt temp $T $T ${Tdamp} z $p $p ${pdamp}
fix             2 all npt temp 300 $T ${Tdamp} z $p $p ${pdamp}
fix             2 all npt temp 300 300 ${Tdamp} z $p $p ${pdamp}
fix             2 all npt temp 300 300 100 z $p $p ${pdamp}
fix             2 all npt temp 300 300 100 z 1 $p ${pdamp}
fix             2 all npt temp 300 300 100 z 1 1 ${pdamp}
fix             2 all npt temp 300 300 100 z 1 1 1000

thermo          1000
thermo_style    multi
thermo_modify   flush yes
timestep        2.0

restart         1000 lmp-benchmark.rst
dump            1 all dcd 5000 lmp-benchmark.dcd
dump_modify     1 unwrap yes

run             10000
PPPM initialization ...
WARNING: Using 12-bit tables for long-range coulomb (../kspace.cpp:321)
  G vector (1/distance) = 0.209784
  grid = 150 160 64
  stencil order = 5
  estimated absolute RMS force accuracy = 0.0401289
  estimated relative force accuracy = 0.000120847
  using double precision FFTs
  3d grid and FFT values/proc = 8925 3750
Neighbor list info ...
  update every 1 steps, delay 0 steps, check yes
  max neighbors/atom: 2000, page size: 100000
  master list distance cutoff = 14
  ghost atom cutoff = 14
  binsize = 7, bins = 63 65 21
  1 neighbor lists, perpetual/occasional/extra = 1 0 0
  (1) pair lj/charmm/coul/long/opt, perpetual
      attributes: half, newton on
      pair build: half/bin/newton
      stencil: half/bin/3d/newton
      bin: standard
Per MPI rank memory allocation (min/avg/max) = 96.26 | 113.9 | 121.9 Mbytes
---------------- Step        0 ----- CPU =      0.0000 (sec) ----------------
TotEng   =  -5198527.1898 KinEng   =   1900046.9846 Temp     =       299.7955 
PotEng   =  -7098574.1743 E_bond   =    106470.9532 E_angle  =    555576.1131 
E_dihed  =    249732.3951 E_impro  =      6486.5045 E_vdwl   =    322655.5854 
E_coul   =  22202828.1578 E_long   = -30542323.8834 Press    =        40.6963 
Volume   =  28808466.4245 
---------------- Step     1000 ----- CPU =    162.0278 (sec) ----------------
TotEng   =  -5199720.8664 KinEng   =   1901027.5991 Temp     =       299.9503 
PotEng   =  -7100748.4654 E_bond   =    106309.6252 E_angle  =    556027.7050 
E_dihed  =    249688.8540 E_impro  =      6392.1091 E_vdwl   =    317360.9833 
E_coul   =  22205954.0542 E_long   = -30542481.7963 Press    =       -24.5200 
Volume   =  28788791.3203 
---------------- Step     2000 ----- CPU =    323.5095 (sec) ----------------
TotEng   =  -5199059.1111 KinEng   =   1900296.2859 Temp     =       299.8349 
PotEng   =  -7099355.3969 E_bond   =    106725.7968 E_angle  =    556120.2575 
E_dihed  =    249338.8064 E_impro  =      6338.1668 E_vdwl   =    323397.3865 
E_coul   =  22201056.8561 E_long   = -30542332.6671 Press    =        36.3987 
Volume   =  28793937.1944 
---------------- Step     3000 ----- CPU =    485.6989 (sec) ----------------
TotEng   =  -5197356.3553 KinEng   =   1900926.3642 Temp     =       299.9343 
PotEng   =  -7098282.7195 E_bond   =    106430.9088 E_angle  =    556743.3807 
E_dihed  =    249513.3814 E_impro  =      6449.9430 E_vdwl   =    320822.8292 
E_coul   =  22204113.4109 E_long   = -30542356.5735 Press    =        25.6067 
Volume   =  28799697.6880 
---------------- Step     4000 ----- CPU =    650.1629 (sec) ----------------
TotEng   =  -5203446.5409 KinEng   =   1900910.4855 Temp     =       299.9318 
PotEng   =  -7104357.0265 E_bond   =    106021.6084 E_angle  =    555527.5386 
E_dihed  =    249584.3457 E_impro  =      6465.6272 E_vdwl   =    325087.1729 
E_coul   =  22195394.2266 E_long   = -30542437.5459 Press    =        67.1508 
Volume   =  28782683.8753 
---------------- Step     5000 ----- CPU =    812.5275 (sec) ----------------
TotEng   =  -5203180.1046 KinEng   =   1900577.5950 Temp     =       299.8793 
PotEng   =  -7103757.6996 E_bond   =    105841.6193 E_angle  =    556414.2511 
E_dihed  =    249484.7019 E_impro  =      6538.8066 E_vdwl   =    320749.0696 
E_coul   =  22199475.5015 E_long   = -30542261.6495 Press    =         9.6591 
Volume   =  28781983.2181 
---------------- Step     6000 ----- CPU =    975.6667 (sec) ----------------
TotEng   =  -5201641.8423 KinEng   =   1899885.0525 Temp     =       299.7700 
PotEng   =  -7101526.8948 E_bond   =    106387.2083 E_angle  =    555903.2179 
E_dihed  =    249220.3101 E_impro  =      6399.9314 E_vdwl   =    321714.4352 
E_coul   =  22201227.9375 E_long   = -30542379.9352 Press    =        -4.2981 
Volume   =  28781473.0081 
---------------- Step     7000 ----- CPU =   1137.6620 (sec) ----------------
TotEng   =  -5202531.2161 KinEng   =   1899771.1257 Temp     =       299.7520 
PotEng   =  -7102302.3418 E_bond   =    106338.0252 E_angle  =    556543.9466 
E_dihed  =    249423.1749 E_impro  =      6482.1094 E_vdwl   =    315881.7044 
E_coul   =  22205368.1727 E_long   = -30542339.4752 Press    =        -9.2202 
Volume   =  28784478.2157 
---------------- Step     8000 ----- CPU =   1300.5143 (sec) ----------------
TotEng   =  -5201870.1168 KinEng   =   1899938.8600 Temp     =       299.7785 
PotEng   =  -7101808.9767 E_bond   =    106153.8113 E_angle  =    555629.0453 
E_dihed  =    249758.5259 E_impro  =      6442.8540 E_vdwl   =    322070.5839 
E_coul   =  22200516.0546 E_long   = -30542379.8516 Press    =        35.7603 
Volume   =  28787890.0644 
---------------- Step     9000 ----- CPU =   1463.9016 (sec) ----------------
TotEng   =  -5201948.8490 KinEng   =   1901026.6812 Temp     =       299.9501 
PotEng   =  -7102975.5301 E_bond   =    106415.3667 E_angle  =    555834.8388 
E_dihed  =    249502.8428 E_impro  =      6497.0260 E_vdwl   =    321290.7660 
E_coul   =  22199783.7441 E_long   = -30542300.1144 Press    =        28.7424 
Volume   =  28786083.9665 
---------------- Step    10000 ----- CPU =   1626.2682 (sec) ----------------
TotEng   =  -5201316.0823 KinEng   =   1900363.8735 Temp     =       299.8455 
PotEng   =  -7101679.9558 E_bond   =    106334.5334 E_angle  =    556775.1948 
E_dihed  =    249096.0855 E_impro  =      6443.6813 E_vdwl   =    322800.9570 
E_coul   =  22199232.9054 E_long   = -30542363.3131 Press    =        36.4561 
Volume   =  28793233.5786 
Loop time of 1626.27 on 448 procs for 10000 steps with 2997924 atoms

Performance: 1.063 ns/day, 22.587 hours/ns, 6.149 timesteps/s
99.6% CPU use with 448 MPI tasks x no OpenMP threads

MPI task timing breakdown:
Section |  min time  |  avg time  |  max time  |%varavg| %total
---------------------------------------------------------------
Pair    | 646.65     | 695.7      | 762.19     | 113.9 | 42.78
Bond    | 0.014906   | 10.693     | 28.462     | 312.2 |  0.66
Kspace  | 413.76     | 495.17     | 559.34     | 180.6 | 30.45
Neigh   | 233.5      | 235.35     | 238.99     |   9.3 | 14.47
Comm    | 43.4       | 53.97      | 60.96      |  66.2 |  3.32
Output  | 25.187     | 25.19      | 25.193     |   0.1 |  1.55
Modify  | 93.163     | 97.355     | 101.82     |  17.6 |  5.99
Other   |            | 12.83      |            |       |  0.79

Nlocal:    6691.79 ave 7129 max 6362 min
Histogram: 14 94 90 17 19 69 80 50 13 2
Nghost:    26669.3 ave 27635 max 25813 min
Histogram: 13 68 56 51 44 51 71 63 27 4
Neighs:    4.00576e+06 ave 4.48764e+06 max 3.64518e+06 min
Histogram: 16 112 81 9 24 54 75 48 22 7

Total # of neighbors = 1794580574
Ave neighs/atom = 598.608
Ave special neighs/atom = 4.89894
Neighbor list builds = 1370
Dangerous builds = 0
Total wall time: 0:27:43
