LAMMPS (31 Mar 2017)
variable        T equal 300.0
variable        p equal   1.0
variable        Tdamp equal  100.0
variable        pdamp equal 1000.0

units           real
neigh_modify    delay 0 every 1 check yes

atom_style      full
bond_style      harmonic
angle_style     charmm
dihedral_style  charmm
improper_style  harmonic

pair_style      lj/charmm/coul/long/opt 10 12
pair_modify     mix arithmetic
kspace_style    pppm 1e-4

read_data       benchmark.data
  orthogonal box = (-218.013 -224.982 -73.4177) to (218.013 224.982 73.4177)
  4 by 7 by 2 MPI processor grid
  reading atoms ...
  2997924 atoms
  reading velocities ...
  2997924 velocities
  scanning bonds ...
  4 = max bonds/atom
  scanning angles ...
  6 = max angles/atom
  scanning dihedrals ...
  36 = max dihedrals/atom
  scanning impropers ...
  2 = max impropers/atom
  reading bonds ...
  2310204 bonds
  reading angles ...
  2497550 angles
  reading dihedrals ...
  2964012 dihedrals
  reading impropers ...
  28260 impropers
  4 = max # of 1-2 neighbors
  12 = max # of 1-3 neighbors
  19 = max # of 1-4 neighbors
  21 = max # of special neighbors

special_bonds   charmm
fix             1 all shake 1e-6 500 0 m 1.0 b 85 a 184
  34924 = # of size 2 clusters
  216000 = # of size 3 clusters
  35668 = # of size 4 clusters
  680410 = # of frozen angles
#fix             2 all npt temp $T $T ${Tdamp} iso $p $p ${pdamp}
#fix             2 all npt temp $T $T ${Tdamp} #                x $p $p ${pdamp} y $p $p ${pdamp} z $p $p ${pdamp} #                couple xy
fix             2 all npt temp $T $T ${Tdamp} z $p $p ${pdamp}
fix             2 all npt temp 300 $T ${Tdamp} z $p $p ${pdamp}
fix             2 all npt temp 300 300 ${Tdamp} z $p $p ${pdamp}
fix             2 all npt temp 300 300 100 z $p $p ${pdamp}
fix             2 all npt temp 300 300 100 z 1 $p ${pdamp}
fix             2 all npt temp 300 300 100 z 1 1 ${pdamp}
fix             2 all npt temp 300 300 100 z 1 1 1000

thermo          1000
thermo_style    multi
thermo_modify   flush yes
timestep        2.0

restart         1000 lmp-benchmark.rst
dump            1 all dcd 5000 lmp-benchmark.dcd
dump_modify     1 unwrap yes

run             10000
PPPM initialization ...
WARNING: Using 12-bit tables for long-range coulomb (../kspace.cpp:321)
  G vector (1/distance) = 0.209784
  grid = 150 160 64
  stencil order = 5
  estimated absolute RMS force accuracy = 0.0401289
  estimated relative force accuracy = 0.000120847
  using double precision FFTs
  3d grid and FFT values/proc = 46139 48000
Neighbor list info ...
  update every 1 steps, delay 0 steps, check yes
  max neighbors/atom: 2000, page size: 100000
  master list distance cutoff = 14
  ghost atom cutoff = 14
  binsize = 7, bins = 63 65 21
  1 neighbor lists, perpetual/occasional/extra = 1 0 0
  (1) pair lj/charmm/coul/long/opt, perpetual
      attributes: half, newton on
      pair build: half/bin/newton
      stencil: half/bin/3d/newton
      bin: standard
Per MPI rank memory allocation (min/avg/max) = 371.2 | 374.2 | 378.7 Mbytes
---------------- Step        0 ----- CPU =      0.0000 (sec) ----------------
TotEng   =  -5198527.1898 KinEng   =   1900046.9846 Temp     =       299.7955 
PotEng   =  -7098574.1743 E_bond   =    106470.9532 E_angle  =    555576.1131 
E_dihed  =    249732.3951 E_impro  =      6486.5045 E_vdwl   =    322655.5854 
E_coul   =  22202828.1578 E_long   = -30542323.8834 Press    =        40.6963 
Volume   =  28808466.4245 
---------------- Step     1000 ----- CPU =    856.5828 (sec) ----------------
TotEng   =  -5201053.7106 KinEng   =   1900010.1487 Temp     =       299.7897 
PotEng   =  -7101063.8593 E_bond   =    106709.7165 E_angle  =    555863.9868 
E_dihed  =    249591.9925 E_impro  =      6418.0677 E_vdwl   =    320639.6908 
E_coul   =  22202067.2923 E_long   = -30542354.6059 Press    =        16.3612 
Volume   =  28784608.0922 
---------------- Step     2000 ----- CPU =   1714.7969 (sec) ----------------
TotEng   =  -5196162.1461 KinEng   =   1903282.9965 Temp     =       300.3061 
PotEng   =  -7099445.1426 E_bond   =    106081.8981 E_angle  =    556748.4247 
E_dihed  =    249494.2754 E_impro  =      6538.2921 E_vdwl   =    319516.7496 
E_coul   =  22204515.1366 E_long   = -30542339.9191 Press    =        14.6243 
Volume   =  28783520.1817 
---------------- Step     3000 ----- CPU =   2574.1836 (sec) ----------------
TotEng   =  -5203720.9035 KinEng   =   1899288.0933 Temp     =       299.6758 
PotEng   =  -7103008.9968 E_bond   =    106408.1449 E_angle  =    555893.2295 
E_dihed  =    249600.3719 E_impro  =      6399.8941 E_vdwl   =    320076.8733 
E_coul   =  22201018.0227 E_long   = -30542405.5331 Press    =        51.6248 
Volume   =  28782941.6856 
---------------- Step     4000 ----- CPU =   3430.2176 (sec) ----------------
TotEng   =  -5204555.5857 KinEng   =   1900447.9354 Temp     =       299.8588 
PotEng   =  -7105003.5211 E_bond   =    106227.4634 E_angle  =    555639.6343 
E_dihed  =    249076.8720 E_impro  =      6384.3969 E_vdwl   =    321188.5757 
E_coul   =  22198879.3556 E_long   = -30542399.8189 Press    =        38.2219 
Volume   =  28781395.5525 
---------------- Step     5000 ----- CPU =   4287.4103 (sec) ----------------
TotEng   =  -5196919.4017 KinEng   =   1901774.9286 Temp     =       300.0682 
PotEng   =  -7098694.3304 E_bond   =    106234.4724 E_angle  =    556778.0921 
E_dihed  =    249582.0234 E_impro  =      6398.5736 E_vdwl   =    320576.9898 
E_coul   =  22203984.3564 E_long   = -30542248.8382 Press    =        15.3729 
Volume   =  28798419.3513 
---------------- Step     6000 ----- CPU =   5140.0642 (sec) ----------------
TotEng   =  -5200450.1818 KinEng   =   1901135.2675 Temp     =       299.9673 
PotEng   =  -7101585.4492 E_bond   =    106489.6336 E_angle  =    556397.9547 
E_dihed  =    249675.3190 E_impro  =      6405.7916 E_vdwl   =    321388.5787 
E_coul   =  22200395.7902 E_long   = -30542338.5171 Press    =        32.1836 
Volume   =  28780903.3337 
---------------- Step     7000 ----- CPU =   5995.2727 (sec) ----------------
TotEng   =  -5202835.7048 KinEng   =   1901901.2985 Temp     =       300.0881 
PotEng   =  -7104737.0033 E_bond   =    106177.5469 E_angle  =    555854.0960 
E_dihed  =    249525.6646 E_impro  =      6546.7422 E_vdwl   =    321738.2115 
E_coul   =  22197819.2342 E_long   = -30542398.4986 Press    =        16.9853 
Volume   =  28779021.4290 
---------------- Step     8000 ----- CPU =   6850.1724 (sec) ----------------
TotEng   =  -5201655.2124 KinEng   =   1900959.0982 Temp     =       299.9395 
PotEng   =  -7102614.3106 E_bond   =    106294.5632 E_angle  =    556941.9914 
E_dihed  =    249586.1777 E_impro  =      6379.6238 E_vdwl   =    321251.1448 
E_coul   =  22199292.7043 E_long   = -30542360.5157 Press    =        48.3804 
Volume   =  28772321.4675 
---------------- Step     9000 ----- CPU =   7705.4162 (sec) ----------------
TotEng   =  -5201029.7058 KinEng   =   1901226.1716 Temp     =       299.9816 
PotEng   =  -7102255.8774 E_bond   =    106297.1739 E_angle  =    556447.4423 
E_dihed  =    249893.1305 E_impro  =      6493.0842 E_vdwl   =    319779.1627 
E_coul   =  22201198.6895 E_long   = -30542364.5605 Press    =         1.3988 
Volume   =  28796860.4954 
---------------- Step    10000 ----- CPU =   8559.6139 (sec) ----------------
TotEng   =  -5202724.8005 KinEng   =   1900192.2829 Temp     =       299.8185 
PotEng   =  -7102917.0834 E_bond   =    106583.6553 E_angle  =    556679.6778 
E_dihed  =    249918.9114 E_impro  =      6469.7466 E_vdwl   =    322652.4117 
E_coul   =  22197189.1334 E_long   = -30542410.6196 Press    =        21.6714 
Volume   =  28776300.3496 
Loop time of 8559.6 on 56 procs for 10000 steps with 2997924 atoms

Performance: 0.202 ns/day, 118.883 hours/ns, 1.168 timesteps/s
99.7% CPU use with 56 MPI tasks x no OpenMP threads

MPI task timing breakdown:
Section |  min time  |  avg time  |  max time  |%varavg| %total
---------------------------------------------------------------
Pair    | 5462       | 5595.5     | 5716.9     |  80.5 | 65.37
Bond    | 61.996     | 99.621     | 145.73     | 197.5 |  1.16
Kspace  | 657.91     | 779.47     | 940.71     | 256.5 |  9.11
Neigh   | 1548.1     | 1550.8     | 1552.4     |   2.3 | 18.12
Comm    | 101.47     | 105.52     | 109.23     |  20.3 |  1.23
Output  | 23.961     | 23.962     | 23.962     |   0.0 |  0.28
Modify  | 300.94     | 322.92     | 383.52     | 127.4 |  3.77
Other   |            | 81.79      |            |       |  0.96

Nlocal:    53534.4 ave 54176 max 52941 min
Histogram: 3 1 7 9 15 3 8 6 1 3
Nghost:    79910.3 ave 80790 max 78957 min
Histogram: 1 5 5 7 6 11 7 6 6 2
Neighs:    3.20637e+07 ave 3.29199e+07 max 3.12605e+07 min
Histogram: 3 1 7 12 6 10 6 5 5 1

Total # of neighbors = 1795566459
Ave neighs/atom = 598.937
Ave special neighs/atom = 4.89894
Neighbor list builds = 1371
Dangerous builds = 0
Total wall time: 2:23:00
