LAMMPS (31 Mar 2017)
variable        T equal 300.0
variable        p equal   1.0
variable        Tdamp equal  100.0
variable        pdamp equal 1000.0

units           real
neigh_modify    delay 0 every 1 check yes

atom_style      full
bond_style      harmonic
angle_style     charmm
dihedral_style  charmm
improper_style  harmonic

pair_style      lj/charmm/coul/long/opt 10 12
pair_modify     mix arithmetic
kspace_style    pppm 1e-4

read_data       benchmark.data
  orthogonal box = (-218.013 -224.982 -73.4177) to (218.013 224.982 73.4177)
  1 by 2 by 1 MPI processor grid
  reading atoms ...
  2997924 atoms
  reading velocities ...
  2997924 velocities
  scanning bonds ...
  4 = max bonds/atom
  scanning angles ...
  6 = max angles/atom
  scanning dihedrals ...
  36 = max dihedrals/atom
  scanning impropers ...
  2 = max impropers/atom
  reading bonds ...
  2310204 bonds
  reading angles ...
  2497550 angles
  reading dihedrals ...
  2964012 dihedrals
  reading impropers ...
  28260 impropers
  4 = max # of 1-2 neighbors
  12 = max # of 1-3 neighbors
  19 = max # of 1-4 neighbors
  21 = max # of special neighbors

special_bonds   charmm
fix             1 all shake 1e-6 500 0 m 1.0 b 85 a 184
  34924 = # of size 2 clusters
  216000 = # of size 3 clusters
  35668 = # of size 4 clusters
  680410 = # of frozen angles
#fix             2 all npt temp $T $T ${Tdamp} iso $p $p ${pdamp}
#fix             2 all npt temp $T $T ${Tdamp} #                x $p $p ${pdamp} y $p $p ${pdamp} z $p $p ${pdamp} #                couple xy
fix             2 all npt temp $T $T ${Tdamp} z $p $p ${pdamp}
fix             2 all npt temp 300 $T ${Tdamp} z $p $p ${pdamp}
fix             2 all npt temp 300 300 ${Tdamp} z $p $p ${pdamp}
fix             2 all npt temp 300 300 100 z $p $p ${pdamp}
fix             2 all npt temp 300 300 100 z 1 $p ${pdamp}
fix             2 all npt temp 300 300 100 z 1 1 ${pdamp}
fix             2 all npt temp 300 300 100 z 1 1 1000

thermo          1000
thermo_style    multi
thermo_modify   flush yes
timestep        2.0

restart         1000 lmp-benchmark.rst
dump            1 all dcd 5000 lmp-benchmark.dcd
dump_modify     1 unwrap yes

run             10000
PPPM initialization ...
WARNING: Using 12-bit tables for long-range coulomb (../kspace.cpp:321)
  G vector (1/distance) = 0.209784
  grid = 150 160 64
  stencil order = 5
  estimated absolute RMS force accuracy = 0.0401289
  estimated relative force accuracy = 0.000120847
  using double precision FFTs
  3d grid and FFT values/proc = 909075 768000
Neighbor list info ...
  update every 1 steps, delay 0 steps, check yes
  max neighbors/atom: 2000, page size: 100000
  master list distance cutoff = 14
  ghost atom cutoff = 14
  binsize = 7, bins = 63 65 21
  1 neighbor lists, perpetual/occasional/extra = 1 0 0
  (1) pair lj/charmm/coul/long/opt, perpetual
      attributes: half, newton on
      pair build: half/bin/newton
      stencil: half/bin/3d/newton
      bin: standard
Per MPI rank memory allocation (min/avg/max) = 2658 | 2659 | 2660 Mbytes
---------------- Step        0 ----- CPU =      0.0000 (sec) ----------------
TotEng   =  -5198527.1901 KinEng   =   1900046.9846 Temp     =       299.7955 
PotEng   =  -7098574.1747 E_bond   =    106470.9532 E_angle  =    555576.1131 
E_dihed  =    249732.3951 E_impro  =      6486.5045 E_vdwl   =    322655.5854 
E_coul   =  22202828.1577 E_long   = -30542323.8837 Press    =        40.6963 
Volume   =  28808466.4245 
---------------- Step     1000 ----- CPU =  21118.9663 (sec) ----------------
TotEng   =  -5201750.0534 KinEng   =   1900222.1297 Temp     =       299.8232 
PotEng   =  -7101972.1831 E_bond   =    106339.5264 E_angle  =    555688.3737 
E_dihed  =    249857.9207 E_impro  =      6452.4124 E_vdwl   =    322047.0157 
E_coul   =  22200023.2554 E_long   = -30542380.6873 Press    =        -2.6455 
Volume   =  28784051.2663 
---------------- Step     2000 ----- CPU =  41574.9835 (sec) ----------------
TotEng   =  -5199991.6394 KinEng   =   1901706.4225 Temp     =       300.0574 
PotEng   =  -7101698.0619 E_bond   =    106444.8792 E_angle  =    555969.0693 
E_dihed  =    249632.3713 E_impro  =      6563.1882 E_vdwl   =    319797.7463 
E_coul   =  22202222.4756 E_long   = -30542327.7917 Press    =        11.3111 
Volume   =  28780322.0328 
---------------- Step     3000 ----- CPU =  61972.5357 (sec) ----------------
TotEng   =  -5198558.1463 KinEng   =   1901830.3233 Temp     =       300.0769 
PotEng   =  -7100388.4696 E_bond   =    106543.5427 E_angle  =    555776.8126 
E_dihed  =    249053.7726 E_impro  =      6461.3438 E_vdwl   =    323328.9998 
E_coul   =  22200848.4167 E_long   = -30542401.3578 Press    =        39.0593 
Volume   =  28799169.4115 
---------------- Step     4000 ----- CPU =  82280.9518 (sec) ----------------
TotEng   =  -5201029.4336 KinEng   =   1900993.0273 Temp     =       299.9448 
PotEng   =  -7102022.4609 E_bond   =    105610.7421 E_angle  =    556301.3191 
E_dihed  =    249048.9436 E_impro  =      6498.0846 E_vdwl   =    322254.4565 
E_coul   =  22200649.8006 E_long   = -30542385.8073 Press    =        49.3472 
Volume   =  28780820.7004 
---------------- Step     5000 ----- CPU = 102570.5827 (sec) ----------------
TotEng   =  -5199750.2994 KinEng   =   1902082.5857 Temp     =       300.1167 
PotEng   =  -7101832.8851 E_bond   =    106010.2219 E_angle  =    557296.8102 
E_dihed  =    249219.0577 E_impro  =      6367.2786 E_vdwl   =    319257.9233 
E_coul   =  22202460.5859 E_long   = -30542444.7626 Press    =        16.6467 
Volume   =  28784138.9856 
---------------- Step     6000 ----- CPU = 122127.7464 (sec) ----------------
TotEng   =  -5202790.9334 KinEng   =   1902438.3948 Temp     =       300.1729 
PotEng   =  -7105229.3283 E_bond   =    105914.3981 E_angle  =    555877.7134 
E_dihed  =    248866.1291 E_impro  =      6473.8195 E_vdwl   =    320724.7185 
E_coul   =  22199312.1939 E_long   = -30542398.3007 Press    =       -17.7694 
Volume   =  28780142.1987 
---------------- Step     7000 ----- CPU = 141731.5450 (sec) ----------------
TotEng   =  -5200338.0905 KinEng   =   1901324.9891 Temp     =       299.9972 
PotEng   =  -7101663.0797 E_bond   =    106266.6425 E_angle  =    557156.8837 
E_dihed  =    249435.3432 E_impro  =      6365.9359 E_vdwl   =    320868.3992 
E_coul   =  22200693.1583 E_long   = -30542449.4425 Press    =        16.8216 
Volume   =  28793215.4040 
---------------- Step     8000 ----- CPU = 161322.4553 (sec) ----------------
TotEng   =  -5200410.4040 KinEng   =   1901360.3879 Temp     =       300.0028 
PotEng   =  -7101770.7919 E_bond   =    106122.7982 E_angle  =    556413.2341 
E_dihed  =    248957.8022 E_impro  =      6397.1937 E_vdwl   =    321134.0527 
E_coul   =  22201578.2163 E_long   = -30542374.0891 Press    =        21.3651 
Volume   =  28795176.3187 
---------------- Step     9000 ----- CPU = 180887.0372 (sec) ----------------
TotEng   =  -5201225.7884 KinEng   =   1901487.6797 Temp     =       300.0229 
PotEng   =  -7102713.4681 E_bond   =    106163.1261 E_angle  =    556429.2478 
E_dihed  =    249845.9124 E_impro  =      6552.6076 E_vdwl   =    324177.8169 
E_coul   =  22196555.5730 E_long   = -30542437.7519 Press    =        23.4227 
Volume   =  28793321.3666 
---------------- Step    10000 ----- CPU = 200419.1390 (sec) ----------------
TotEng   =  -5203933.9298 KinEng   =   1900481.1531 Temp     =       299.8641 
PotEng   =  -7104415.0828 E_bond   =    106503.3403 E_angle  =    556409.9669 
E_dihed  =    249262.3756 E_impro  =      6456.5372 E_vdwl   =    318700.9910 
E_coul   =  22200647.1983 E_long   = -30542395.4921 Press    =       -15.0448 
Volume   =  28778194.5366 
Loop time of 200419 on 2 procs for 10000 steps with 2997924 atoms

Performance: 0.009 ns/day, 2783.599 hours/ns, 0.050 timesteps/s
99.8% CPU use with 2 MPI tasks x no OpenMP threads

MPI task timing breakdown:
Section |  min time  |  avg time  |  max time  |%varavg| %total
---------------------------------------------------------------
Pair    | 1.4394e+05 | 1.4396e+05 | 1.4397e+05 |   4.1 | 71.83
Bond    | 2932.8     | 2943.5     | 2954.3     |  19.8 |  1.47
Kspace  | 10319      | 10346      | 10372      |  26.2 |  5.16
Neigh   | 36141      | 36142      | 36143      |   0.5 | 18.03
Comm    | 447.83     | 448.17     | 448.51     |   1.6 |  0.22
Output  | 29.2       | 29.201     | 29.202     |   0.0 |  0.01
Modify  | 6368.9     | 6377.3     | 6385.7     |  10.6 |  3.18
Other   |            | 177.9      |            |       |  0.09

Nlocal:    1.49896e+06 ave 1.4991e+06 max 1.49883e+06 min
Histogram: 1 0 0 0 0 0 0 0 0 1
Nghost:    625822 ave 625911 max 625734 min
Histogram: 1 0 0 0 0 0 0 0 0 1
Neighs:    8.97719e+08 ave 8.9791e+08 max 8.97528e+08 min
Histogram: 1 0 0 0 0 0 0 0 0 1

Total # of neighbors = 1795437293
Ave neighs/atom = 598.894
Ave special neighs/atom = 4.89894
Neighbor list builds = 1370
Dangerous builds = 0
Total wall time: 55:41:31
