LAMMPS (31 Mar 2017)
variable        T equal 300.0
variable        p equal   1.0
variable        Tdamp equal  100.0
variable        pdamp equal 1000.0

units           real
neigh_modify    delay 0 every 1 check yes

atom_style      full
bond_style      harmonic
angle_style     charmm
dihedral_style  charmm
improper_style  harmonic

pair_style      lj/charmm/coul/long/opt 10 12
pair_modify     mix arithmetic
kspace_style    pppm 1e-4

read_data       benchmark.data
  orthogonal box = (-218.013 -224.982 -73.4177) to (218.013 224.982 73.4177)
  1 by 1 by 1 MPI processor grid
  reading atoms ...
  2997924 atoms
  reading velocities ...
  2997924 velocities
  scanning bonds ...
  4 = max bonds/atom
  scanning angles ...
  6 = max angles/atom
  scanning dihedrals ...
  36 = max dihedrals/atom
  scanning impropers ...
  2 = max impropers/atom
  reading bonds ...
  2310204 bonds
  reading angles ...
  2497550 angles
  reading dihedrals ...
  2964012 dihedrals
  reading impropers ...
  28260 impropers
  4 = max # of 1-2 neighbors
  12 = max # of 1-3 neighbors
  19 = max # of 1-4 neighbors
  21 = max # of special neighbors

special_bonds   charmm
fix             1 all shake 1e-6 500 0 m 1.0 b 85 a 184
  34924 = # of size 2 clusters
  216000 = # of size 3 clusters
  35668 = # of size 4 clusters
  680410 = # of frozen angles
#fix             2 all npt temp $T $T ${Tdamp} iso $p $p ${pdamp}
#fix             2 all npt temp $T $T ${Tdamp} #                x $p $p ${pdamp} y $p $p ${pdamp} z $p $p ${pdamp} #                couple xy
fix             2 all npt temp $T $T ${Tdamp} z $p $p ${pdamp}
fix             2 all npt temp 300 $T ${Tdamp} z $p $p ${pdamp}
fix             2 all npt temp 300 300 ${Tdamp} z $p $p ${pdamp}
fix             2 all npt temp 300 300 100 z $p $p ${pdamp}
fix             2 all npt temp 300 300 100 z 1 $p ${pdamp}
fix             2 all npt temp 300 300 100 z 1 1 ${pdamp}
fix             2 all npt temp 300 300 100 z 1 1 1000

thermo          1000
thermo_style    multi
thermo_modify   flush yes
timestep        2.0

restart         1000 lmp-benchmark.rst
dump            1 all dcd 5000 lmp-benchmark.dcd
dump_modify     1 unwrap yes

run             10000
PPPM initialization ...
WARNING: Using 12-bit tables for long-range coulomb (../kspace.cpp:321)
  G vector (1/distance) = 0.209784
  grid = 150 160 64
  stencil order = 5
  estimated absolute RMS force accuracy = 0.0401289
  estimated relative force accuracy = 0.000120847
  using double precision FFTs
  3d grid and FFT values/proc = 1764675 1536000
Neighbor list info ...
  update every 1 steps, delay 0 steps, check yes
  max neighbors/atom: 2000, page size: 100000
  master list distance cutoff = 14
  ghost atom cutoff = 14
  binsize = 7, bins = 63 65 21
  1 neighbor lists, perpetual/occasional/extra = 1 0 0
  (1) pair lj/charmm/coul/long/opt, perpetual
      attributes: half, newton on
      pair build: half/bin/newton
      stencil: half/bin/3d/newton
      bin: standard
Per MPI rank memory allocation (min/avg/max) = 4852 | 4852 | 4852 Mbytes
---------------- Step        0 ----- CPU =      0.0000 (sec) ----------------
TotEng   =  -5198527.1895 KinEng   =   1900046.9846 Temp     =       299.7955 
PotEng   =  -7098574.1740 E_bond   =    106470.9532 E_angle  =    555576.1131 
E_dihed  =    249732.3951 E_impro  =      6486.5045 E_vdwl   =    322655.5854 
E_coul   =  22202828.1577 E_long   = -30542323.8831 Press    =        40.6963 
Volume   =  28808466.4245 
---------------- Step     1000 ----- CPU =  40791.0179 (sec) ----------------
TotEng   =  -5201147.8294 KinEng   =   1900196.9140 Temp     =       299.8192 
PotEng   =  -7101344.7434 E_bond   =    106386.0347 E_angle  =    555944.8460 
E_dihed  =    249698.1783 E_impro  =      6445.4760 E_vdwl   =    320380.5245 
E_coul   =  22202188.1496 E_long   = -30542387.9526 Press    =        10.8480 
Volume   =  28784089.7663 
---------------- Step     2000 ----- CPU =  80981.0084 (sec) ----------------
TotEng   =  -5198375.5611 KinEng   =   1901751.2473 Temp     =       300.0644 
PotEng   =  -7100126.8084 E_bond   =    106145.2411 E_angle  =    556769.2116 
E_dihed  =    249251.9182 E_impro  =      6534.1993 E_vdwl   =    321634.7696 
E_coul   =  22201866.0560 E_long   = -30542328.2043 Press    =        29.0966 
Volume   =  28784819.7603 
---------------- Step     3000 ----- CPU = 120539.1334 (sec) ----------------
TotEng   =  -5199955.9519 KinEng   =   1901394.9923 Temp     =       300.0082 
PotEng   =  -7101350.9441 E_bond   =    105889.2805 E_angle  =    555614.2303 
E_dihed  =    249345.2597 E_impro  =      6540.2232 E_vdwl   =    321794.0488 
E_coul   =  22201804.7206 E_long   = -30542338.7072 Press    =        10.3222 
Volume   =  28788274.5854 
---------------- Step     4000 ----- CPU = 159430.4361 (sec) ----------------
TotEng   =  -5196727.5827 KinEng   =   1901122.1973 Temp     =       299.9652 
PotEng   =  -7097849.7800 E_bond   =    106313.7585 E_angle  =    557682.5713 
E_dihed  =    248985.2054 E_impro  =      6502.7670 E_vdwl   =    319854.8928 
E_coul   =  22205296.9289 E_long   = -30542485.9039 Press    =       -22.2587 
Volume   =  28793278.1744 
---------------- Step     5000 ----- CPU = 198163.8571 (sec) ----------------
TotEng   =  -5202480.9761 KinEng   =   1901398.9255 Temp     =       300.0089 
PotEng   =  -7103879.9015 E_bond   =    106122.7810 E_angle  =    556374.5306 
E_dihed  =    249357.4046 E_impro  =      6414.3347 E_vdwl   =    321658.1265 
E_coul   =  22198722.1378 E_long   = -30542529.2167 Press    =        36.4012 
Volume   =  28779893.0674 
---------------- Step     6000 ----- CPU = 234948.9520 (sec) ----------------
TotEng   =  -5198169.3970 KinEng   =   1903721.8818 Temp     =       300.3754 
PotEng   =  -7101891.2788 E_bond   =    106010.1214 E_angle  =    556304.4758 
E_dihed  =    249305.0741 E_impro  =      6360.1967 E_vdwl   =    320359.6752 
E_coul   =  22202099.4368 E_long   = -30542330.2589 Press    =        30.1795 
Volume   =  28779082.8310 
---------------- Step     7000 ----- CPU = 271367.5088 (sec) ----------------
TotEng   =  -5200990.7080 KinEng   =   1900928.2810 Temp     =       299.9346 
PotEng   =  -7101918.9890 E_bond   =    106190.4061 E_angle  =    556536.4879 
E_dihed  =    249264.3025 E_impro  =      6550.7564 E_vdwl   =    322117.9251 
E_coul   =  22199776.2084 E_long   = -30542355.0755 Press    =        20.7211 
Volume   =  28780033.7889 
---------------- Step     8000 ----- CPU = 311638.1075 (sec) ----------------
TotEng   =  -5202776.4948 KinEng   =   1900591.8184 Temp     =       299.8815 
PotEng   =  -7103368.3132 E_bond   =    106239.6765 E_angle  =    555635.9288 
E_dihed  =    249360.6601 E_impro  =      6462.4661 E_vdwl   =    320932.3983 
E_coul   =  22200389.2736 E_long   = -30542388.7164 Press    =        24.8902 
Volume   =  28785619.4649 
---------------- Step     9000 ----- CPU = 352294.2325 (sec) ----------------
TotEng   =  -5202927.7215 KinEng   =   1901553.3833 Temp     =       300.0332 
PotEng   =  -7104481.1047 E_bond   =    106487.6411 E_angle  =    556009.5056 
E_dihed  =    249516.8655 E_impro  =      6457.8068 E_vdwl   =    320540.0300 
E_coul   =  22198915.6339 E_long   = -30542408.5876 Press    =         3.0005 
Volume   =  28771553.0127 
---------------- Step    10000 ----- CPU = 392993.3431 (sec) ----------------
TotEng   =  -5202457.4685 KinEng   =   1899677.9115 Temp     =       299.7373 
PotEng   =  -7102135.3800 E_bond   =    106537.4444 E_angle  =    556604.4483 
E_dihed  =    249336.7520 E_impro  =      6445.0029 E_vdwl   =    322192.0784 
E_coul   =  22199151.2058 E_long   = -30542402.3118 Press    =         9.0828 
Volume   =  28779170.8755 
Loop time of 392993 on 1 procs for 10000 steps with 2997924 atoms

Performance: 0.004 ns/day, 5458.241 hours/ns, 0.025 timesteps/s
99.8% CPU use with 1 MPI tasks x no OpenMP threads

MPI task timing breakdown:
Section |  min time  |  avg time  |  max time  |%varavg| %total
---------------------------------------------------------------
Pair    | 2.8369e+05 | 2.8369e+05 | 2.8369e+05 |   0.0 | 72.19
Bond    | 5934.2     | 5934.2     | 5934.2     |   0.0 |  1.51
Kspace  | 20119      | 20119      | 20119      |   0.0 |  5.12
Neigh   | 69606      | 69606      | 69606      |   0.0 | 17.71
Comm    | 750.77     | 750.77     | 750.77     |   0.0 |  0.19
Output  | 39.437     | 39.437     | 39.437     |   0.0 |  0.01
Modify  | 12529      | 12529      | 12529      |   0.0 |  3.19
Other   |            | 328.1      |            |       |  0.08

Nlocal:    2.99792e+06 ave 2.99792e+06 max 2.99792e+06 min
Histogram: 1 0 0 0 0 0 0 0 0 0
Nghost:    1.01704e+06 ave 1.01704e+06 max 1.01704e+06 min
Histogram: 1 0 0 0 0 0 0 0 0 0
Neighs:    1.79545e+09 ave 1.79545e+09 max 1.79545e+09 min
Histogram: 1 0 0 0 0 0 0 0 0 0

Total # of neighbors = 1795454504
Ave neighs/atom = 598.899
Ave special neighs/atom = 4.89894
Neighbor list builds = 1373
Dangerous builds = 0
Total wall time: 109:12:06
