LAMMPS (31 Mar 2017)
variable        T equal 300.0
variable        p equal   1.0
variable        Tdamp equal  100.0
variable        pdamp equal 1000.0

units           real
neigh_modify    delay 0 every 1 check yes

atom_style      full
bond_style      harmonic
angle_style     charmm
dihedral_style  charmm
improper_style  harmonic

pair_style      lj/charmm/coul/long/opt 10 12
pair_modify     mix arithmetic
kspace_style    pppm 1e-4

read_data       benchmark.data
  orthogonal box = (-218.013 -224.982 -73.4177) to (218.013 224.982 73.4177)
  7 by 8 by 4 MPI processor grid
  reading atoms ...
  2997924 atoms
  reading velocities ...
  2997924 velocities
  scanning bonds ...
  4 = max bonds/atom
  scanning angles ...
  6 = max angles/atom
  scanning dihedrals ...
  36 = max dihedrals/atom
  scanning impropers ...
  2 = max impropers/atom
  reading bonds ...
  2310204 bonds
  reading angles ...
  2497550 angles
  reading dihedrals ...
  2964012 dihedrals
  reading impropers ...
  28260 impropers
  4 = max # of 1-2 neighbors
  12 = max # of 1-3 neighbors
  19 = max # of 1-4 neighbors
  21 = max # of special neighbors

special_bonds   charmm
fix             1 all shake 1e-6 500 0 m 1.0 b 85 a 184
  34924 = # of size 2 clusters
  216000 = # of size 3 clusters
  35668 = # of size 4 clusters
  680410 = # of frozen angles
#fix             2 all npt temp $T $T ${Tdamp} iso $p $p ${pdamp}
#fix             2 all npt temp $T $T ${Tdamp} #                x $p $p ${pdamp} y $p $p ${pdamp} z $p $p ${pdamp} #                couple xy
fix             2 all npt temp $T $T ${Tdamp} z $p $p ${pdamp}
fix             2 all npt temp 300 $T ${Tdamp} z $p $p ${pdamp}
fix             2 all npt temp 300 300 ${Tdamp} z $p $p ${pdamp}
fix             2 all npt temp 300 300 100 z $p $p ${pdamp}
fix             2 all npt temp 300 300 100 z 1 $p ${pdamp}
fix             2 all npt temp 300 300 100 z 1 1 ${pdamp}
fix             2 all npt temp 300 300 100 z 1 1 1000

thermo          1000
thermo_style    multi
thermo_modify   flush yes
timestep        2.0

restart         1000 lmp-benchmark.rst
dump            1 all dcd 5000 lmp-benchmark.dcd
dump_modify     1 unwrap yes

run             10000
PPPM initialization ...
WARNING: Using 12-bit tables for long-range coulomb (../kspace.cpp:321)
  G vector (1/distance) = 0.209784
  grid = 150 160 64
  stencil order = 5
  estimated absolute RMS force accuracy = 0.0401289
  estimated relative force accuracy = 0.000120847
  using double precision FFTs
  3d grid and FFT values/proc = 14175 7200
Neighbor list info ...
  update every 1 steps, delay 0 steps, check yes
  max neighbors/atom: 2000, page size: 100000
  master list distance cutoff = 14
  ghost atom cutoff = 14
  binsize = 7, bins = 63 65 21
  1 neighbor lists, perpetual/occasional/extra = 1 0 0
  (1) pair lj/charmm/coul/long/opt, perpetual
      attributes: half, newton on
      pair build: half/bin/newton
      stencil: half/bin/3d/newton
      bin: standard
Per MPI rank memory allocation (min/avg/max) = 157.3 | 159.8 | 163.8 Mbytes
---------------- Step        0 ----- CPU =      0.0000 (sec) ----------------
TotEng   =  -5198527.1898 KinEng   =   1900046.9846 Temp     =       299.7955 
PotEng   =  -7098574.1743 E_bond   =    106470.9532 E_angle  =    555576.1131 
E_dihed  =    249732.3951 E_impro  =      6486.5045 E_vdwl   =    322655.5854 
E_coul   =  22202828.1578 E_long   = -30542323.8834 Press    =        40.6963 
Volume   =  28808466.4245 
---------------- Step     1000 ----- CPU =    257.6714 (sec) ----------------
TotEng   =  -5200034.1944 KinEng   =   1900715.1466 Temp     =       299.9010 
PotEng   =  -7100749.3411 E_bond   =    106430.6302 E_angle  =    555901.4365 
E_dihed  =    249746.1100 E_impro  =      6526.0192 E_vdwl   =    323307.1871 
E_coul   =  22199749.9565 E_long   = -30542410.6805 Press    =        29.7194 
Volume   =  28784037.7760 
---------------- Step     2000 ----- CPU =    515.3833 (sec) ----------------
TotEng   =  -5198987.0322 KinEng   =   1901436.5775 Temp     =       300.0148 
PotEng   =  -7100423.6096 E_bond   =    106011.3480 E_angle  =    556427.0657 
E_dihed  =    249434.8363 E_impro  =      6388.2772 E_vdwl   =    321150.1118 
E_coul   =  22202527.6115 E_long   = -30542362.8603 Press    =        38.3827 
Volume   =  28786518.1601 
---------------- Step     3000 ----- CPU =    771.6569 (sec) ----------------
TotEng   =  -5199359.9567 KinEng   =   1900632.0047 Temp     =       299.8879 
PotEng   =  -7099991.9614 E_bond   =    106499.8820 E_angle  =    556991.6596 
E_dihed  =    249248.9472 E_impro  =      6516.4012 E_vdwl   =    323467.1561 
E_coul   =  22199618.8050 E_long   = -30542334.8126 Press    =        33.5607 
Volume   =  28795749.2854 
---------------- Step     4000 ----- CPU =   1026.5424 (sec) ----------------
TotEng   =  -5196981.3559 KinEng   =   1903674.0470 Temp     =       300.3678 
PotEng   =  -7100655.4029 E_bond   =    106579.1907 E_angle  =    556525.3412 
E_dihed  =    248931.8522 E_impro  =      6479.7648 E_vdwl   =    319926.5254 
E_coul   =  22203185.9499 E_long   = -30542284.0271 Press    =        -8.4854 
Volume   =  28795678.1079 
---------------- Step     5000 ----- CPU =   1281.9348 (sec) ----------------
TotEng   =  -5201761.9234 KinEng   =   1901229.2865 Temp     =       299.9821 
PotEng   =  -7102991.2099 E_bond   =    106040.2097 E_angle  =    555560.6269 
E_dihed  =    249486.9126 E_impro  =      6516.8619 E_vdwl   =    317647.3622 
E_coul   =  22204166.0626 E_long   = -30542409.2457 Press    =       -33.7671 
Volume   =  28794241.2738 
---------------- Step     6000 ----- CPU =   1537.1517 (sec) ----------------
TotEng   =  -5200627.9820 KinEng   =   1900317.1294 Temp     =       299.8382 
PotEng   =  -7100945.1114 E_bond   =    106112.9422 E_angle  =    556116.8956 
E_dihed  =    249309.0710 E_impro  =      6454.4957 E_vdwl   =    322429.2802 
E_coul   =  22200972.7251 E_long   = -30542340.5212 Press    =        47.5390 
Volume   =  28788760.6679 
---------------- Step     7000 ----- CPU =   1792.9975 (sec) ----------------
TotEng   =  -5199754.1655 KinEng   =   1900759.3943 Temp     =       299.9080 
PotEng   =  -7100513.5598 E_bond   =    105791.0451 E_angle  =    556619.9677 
E_dihed  =    249433.0581 E_impro  =      6514.2382 E_vdwl   =    320409.9332 
E_coul   =  22203111.0439 E_long   = -30542392.8460 Press    =        -2.2454 
Volume   =  28796624.2220 
---------------- Step     8000 ----- CPU =   2049.4039 (sec) ----------------
TotEng   =  -5201483.6232 KinEng   =   1901572.5468 Temp     =       300.0363 
PotEng   =  -7103056.1701 E_bond   =    106126.6952 E_angle  =    556351.3603 
E_dihed  =    249415.7934 E_impro  =      6555.1920 E_vdwl   =    322538.2922 
E_coul   =  22198381.3482 E_long   = -30542424.8512 Press    =        30.0826 
Volume   =  28781936.0214 
---------------- Step     9000 ----- CPU =   2305.7880 (sec) ----------------
TotEng   =  -5200474.1885 KinEng   =   1901144.3139 Temp     =       299.9687 
PotEng   =  -7101618.5024 E_bond   =    105972.2635 E_angle  =    556126.3530 
E_dihed  =    249742.9657 E_impro  =      6321.9964 E_vdwl   =    321404.0829 
E_coul   =  22201244.6776 E_long   = -30542430.8416 Press    =        22.8830 
Volume   =  28791003.8594 
---------------- Step    10000 ----- CPU =   2562.3348 (sec) ----------------
TotEng   =  -5201139.4020 KinEng   =   1901078.7301 Temp     =       299.9583 
PotEng   =  -7102218.1321 E_bond   =    105982.3565 E_angle  =    556286.9971 
E_dihed  =    249481.2860 E_impro  =      6508.2526 E_vdwl   =    321856.9905 
E_coul   =  22200011.5566 E_long   = -30542345.5715 Press    =        44.6942 
Volume   =  28784083.5604 
Loop time of 2562.33 on 224 procs for 10000 steps with 2997924 atoms

Performance: 0.674 ns/day, 35.588 hours/ns, 3.903 timesteps/s
99.7% CPU use with 224 MPI tasks x no OpenMP threads

MPI task timing breakdown:
Section |  min time  |  avg time  |  max time  |%varavg| %total
---------------------------------------------------------------
Pair    | 1306.1     | 1385.8     | 1514.6     | 159.7 | 54.08
Bond    | 0.016493   | 21.445     | 53.74      | 439.3 |  0.84
Kspace  | 334.91     | 494.21     | 596.97     | 358.0 | 19.29
Neigh   | 420.16     | 425.88     | 428.36     |  12.6 | 16.62
Comm    | 55.895     | 73.638     | 95.741     | 120.4 |  2.87
Output  | 25.331     | 25.331     | 25.332     |   0.0 |  0.99
Modify  | 114.17     | 123.43     | 134.29     |  44.9 |  4.82
Other   |            | 12.59      |            |       |  0.49

Nlocal:    13383.6 ave 14071 max 12876 min
Histogram: 36 55 14 4 5 16 34 39 19 2
Nghost:    37760.3 ave 38980 max 36645 min
Histogram: 12 32 25 23 27 15 35 31 20 4
Neighs:    8.01408e+06 ave 8.8846e+06 max 7.42491e+06 min
Histogram: 35 61 11 3 11 22 36 27 16 2

Total # of neighbors = 1795154940
Ave neighs/atom = 598.799
Ave special neighs/atom = 4.89894
Neighbor list builds = 1370
Dangerous builds = 0
Total wall time: 0:43:12
