LAMMPS (31 Mar 2017)
variable        T equal 300.0
variable        p equal   1.0
variable        Tdamp equal  100.0
variable        pdamp equal 1000.0

units           real
neigh_modify    delay 0 every 1 check yes

atom_style      full
bond_style      harmonic
angle_style     charmm
dihedral_style  charmm
improper_style  harmonic

pair_style      lj/charmm/coul/long/opt 10 12
pair_modify     mix arithmetic
kspace_style    pppm 1e-4

read_data       benchmark.data
  orthogonal box = (-218.013 -224.982 -73.4177) to (218.013 224.982 73.4177)
  7 by 8 by 2 MPI processor grid
  reading atoms ...
  2997924 atoms
  reading velocities ...
  2997924 velocities
  scanning bonds ...
  4 = max bonds/atom
  scanning angles ...
  6 = max angles/atom
  scanning dihedrals ...
  36 = max dihedrals/atom
  scanning impropers ...
  2 = max impropers/atom
  reading bonds ...
  2310204 bonds
  reading angles ...
  2497550 angles
  reading dihedrals ...
  2964012 dihedrals
  reading impropers ...
  28260 impropers
  4 = max # of 1-2 neighbors
  12 = max # of 1-3 neighbors
  19 = max # of 1-4 neighbors
  21 = max # of special neighbors

special_bonds   charmm
fix             1 all shake 1e-6 500 0 m 1.0 b 85 a 184
  34924 = # of size 2 clusters
  216000 = # of size 3 clusters
  35668 = # of size 4 clusters
  680410 = # of frozen angles
#fix             2 all npt temp $T $T ${Tdamp} iso $p $p ${pdamp}
#fix             2 all npt temp $T $T ${Tdamp} #                x $p $p ${pdamp} y $p $p ${pdamp} z $p $p ${pdamp} #                couple xy
fix             2 all npt temp $T $T ${Tdamp} z $p $p ${pdamp}
fix             2 all npt temp 300 $T ${Tdamp} z $p $p ${pdamp}
fix             2 all npt temp 300 300 ${Tdamp} z $p $p ${pdamp}
fix             2 all npt temp 300 300 100 z $p $p ${pdamp}
fix             2 all npt temp 300 300 100 z 1 $p ${pdamp}
fix             2 all npt temp 300 300 100 z 1 1 ${pdamp}
fix             2 all npt temp 300 300 100 z 1 1 1000

thermo          1000
thermo_style    multi
thermo_modify   flush yes
timestep        2.0

restart         1000 lmp-benchmark.rst
dump            1 all dcd 5000 lmp-benchmark.dcd
dump_modify     1 unwrap yes

run             10000
PPPM initialization ...
WARNING: Using 12-bit tables for long-range coulomb (../kspace.cpp:321)
  G vector (1/distance) = 0.209784
  grid = 150 160 64
  stencil order = 5
  estimated absolute RMS force accuracy = 0.0401289
  estimated relative force accuracy = 0.000120847
  using double precision FFTs
  3d grid and FFT values/proc = 24975 15000
Neighbor list info ...
  update every 1 steps, delay 0 steps, check yes
  max neighbors/atom: 2000, page size: 100000
  master list distance cutoff = 14
  ghost atom cutoff = 14
  binsize = 7, bins = 63 65 21
  1 neighbor lists, perpetual/occasional/extra = 1 0 0
  (1) pair lj/charmm/coul/long/opt, perpetual
      attributes: half, newton on
      pair build: half/bin/newton
      stencil: half/bin/3d/newton
      bin: standard
Per MPI rank memory allocation (min/avg/max) = 213.7 | 215.9 | 218.8 Mbytes
---------------- Step        0 ----- CPU =      0.0000 (sec) ----------------
TotEng   =  -5198527.1898 KinEng   =   1900046.9846 Temp     =       299.7955 
PotEng   =  -7098574.1743 E_bond   =    106470.9532 E_angle  =    555576.1131 
E_dihed  =    249732.3951 E_impro  =      6486.5045 E_vdwl   =    322655.5854 
E_coul   =  22202828.1578 E_long   = -30542323.8834 Press    =        40.6963 
Volume   =  28808466.4245 
---------------- Step     1000 ----- CPU =    449.3174 (sec) ----------------
TotEng   =  -5199705.8731 KinEng   =   1901853.3030 Temp     =       300.0806 
PotEng   =  -7101559.1761 E_bond   =    106446.5005 E_angle  =    556036.4135 
E_dihed  =    249636.9305 E_impro  =      6456.2017 E_vdwl   =    320900.1300 
E_coul   =  22201372.6848 E_long   = -30542408.0372 Press    =         0.8433 
Volume   =  28786860.2410 
---------------- Step     2000 ----- CPU =    897.8886 (sec) ----------------
TotEng   =  -5201651.7023 KinEng   =   1900868.3298 Temp     =       299.9251 
PotEng   =  -7102520.0321 E_bond   =    106114.5020 E_angle  =    555344.5656 
E_dihed  =    249442.1353 E_impro  =      6415.6567 E_vdwl   =    320406.8684 
E_coul   =  22202179.3502 E_long   = -30542423.1103 Press    =        21.8834 
Volume   =  28777077.4812 
---------------- Step     3000 ----- CPU =   1345.8820 (sec) ----------------
TotEng   =  -5198740.1602 KinEng   =   1902945.5419 Temp     =       300.2529 
PotEng   =  -7101685.7021 E_bond   =    105916.9334 E_angle  =    556059.2352 
E_dihed  =    249506.3501 E_impro  =      6441.8882 E_vdwl   =    320867.9106 
E_coul   =  22201832.6123 E_long   = -30542310.6317 Press    =        44.9032 
Volume   =  28784260.9345 
---------------- Step     4000 ----- CPU =   1791.7925 (sec) ----------------
TotEng   =  -5199800.3105 KinEng   =   1900929.9676 Temp     =       299.9349 
PotEng   =  -7100730.2780 E_bond   =    106189.0291 E_angle  =    556404.2756 
E_dihed  =    249064.1457 E_impro  =      6455.3838 E_vdwl   =    319448.8181 
E_coul   =  22204142.3282 E_long   = -30542434.2585 Press    =        14.0247 
Volume   =  28791581.3313 
---------------- Step     5000 ----- CPU =   2243.6910 (sec) ----------------
TotEng   =  -5201379.7380 KinEng   =   1901788.8331 Temp     =       300.0704 
PotEng   =  -7103168.5711 E_bond   =    105854.4957 E_angle  =    556835.2520 
E_dihed  =    249510.4128 E_impro  =      6374.3016 E_vdwl   =    320995.4885 
E_coul   =  22199506.9515 E_long   = -30542245.4731 Press    =        26.3607 
Volume   =  28772708.6699 
---------------- Step     6000 ----- CPU =   2689.5074 (sec) ----------------
TotEng   =  -5200782.2994 KinEng   =   1901645.9208 Temp     =       300.0478 
PotEng   =  -7102428.2203 E_bond   =    106486.7429 E_angle  =    555781.0191 
E_dihed  =    248816.8625 E_impro  =      6435.8793 E_vdwl   =    320019.2878 
E_coul   =  22202408.6889 E_long   = -30542376.7008 Press    =         6.3882 
Volume   =  28778660.9932 
---------------- Step     7000 ----- CPU =   3136.0055 (sec) ----------------
TotEng   =  -5201685.0839 KinEng   =   1901267.8516 Temp     =       299.9882 
PotEng   =  -7102952.9355 E_bond   =    106687.8798 E_angle  =    556005.0590 
E_dihed  =    248889.5232 E_impro  =      6520.5233 E_vdwl   =    321357.1263 
E_coul   =  22199967.2438 E_long   = -30542380.2909 Press    =        10.6904 
Volume   =  28789690.8706 
---------------- Step     8000 ----- CPU =   3580.7334 (sec) ----------------
TotEng   =  -5198927.5782 KinEng   =   1900342.0820 Temp     =       299.8421 
PotEng   =  -7099269.6603 E_bond   =    106773.0070 E_angle  =    557111.5653 
E_dihed  =    249249.7143 E_impro  =      6503.8317 E_vdwl   =    322739.6715 
E_coul   =  22200616.9492 E_long   = -30542264.3992 Press    =        35.7540 
Volume   =  28799923.5789 
---------------- Step     9000 ----- CPU =   4025.0315 (sec) ----------------
TotEng   =  -5200759.2904 KinEng   =   1900669.5678 Temp     =       299.8938 
PotEng   =  -7101428.8582 E_bond   =    106652.5468 E_angle  =    557021.6325 
E_dihed  =    249068.4037 E_impro  =      6472.4670 E_vdwl   =    320768.6601 
E_coul   =  22201030.2707 E_long   = -30542442.8390 Press    =        14.6154 
Volume   =  28793164.4907 
---------------- Step    10000 ----- CPU =   4470.6551 (sec) ----------------
TotEng   =  -5202658.2445 KinEng   =   1900855.1123 Temp     =       299.9231 
PotEng   =  -7103513.3567 E_bond   =    106700.9684 E_angle  =    555736.2157 
E_dihed  =    249142.9952 E_impro  =      6469.2194 E_vdwl   =    321709.5860 
E_coul   =  22199015.3703 E_long   = -30542287.7118 Press    =        16.4743 
Volume   =  28786295.6861 
Loop time of 4470.66 on 112 procs for 10000 steps with 2997924 atoms

Performance: 0.387 ns/day, 62.092 hours/ns, 2.237 timesteps/s
99.7% CPU use with 112 MPI tasks x no OpenMP threads

MPI task timing breakdown:
Section |  min time  |  avg time  |  max time  |%varavg| %total
---------------------------------------------------------------
Pair    | 2707.6     | 2788.6     | 2876.3     |  69.6 | 62.38
Bond    | 22.69      | 45.024     | 83.214     | 156.6 |  1.01
Kspace  | 468.46     | 581.26     | 671.93     | 180.4 | 13.00
Neigh   | 777.18     | 778.1      | 778.89     |   1.3 | 17.40
Comm    | 64.253     | 67.84      | 71.04      |  20.2 |  1.52
Output  | 30.315     | 30.315     | 30.315     |   0.0 |  0.68
Modify  | 157.82     | 161.48     | 166.61     |  14.0 |  3.61
Other   |            | 18.03      |            |       |  0.40

Nlocal:    26767.2 ave 27274 max 26406 min
Histogram: 12 7 12 22 29 8 10 5 4 3
Nghost:    53480.1 ave 54117 max 52689 min
Histogram: 6 4 5 10 23 17 12 18 7 10
Neighs:    1.60266e+07 ave 1.66106e+07 max 1.55112e+07 min
Histogram: 4 10 9 23 17 25 6 9 5 4

Total # of neighbors = 1794976660
Ave neighs/atom = 598.74
Ave special neighs/atom = 4.89894
Neighbor list builds = 1374
Dangerous builds = 0
Total wall time: 1:14:56
